# vtk DataFile Version 2.0
hypocenters
ASCII
DATASET POLYDATA
POINTS 0 float
POINT_DATA 0
SCALARS scalars float 1
LOOKUP_TABLE default
